<?xml version="1.0"?>
<VTKFile type="UnstructuredGrid"  version="0.1"  >
<UnstructuredGrid>
<Piece  NumberOfPoints="289" NumberOfCells="512">
<Points>
<DataArray  type="Float64"  NumberOfComponents="3"  format="ascii">0 0 0  0.0625 0 0  0.125 0 0  0.1875 0 0  0.25 0 0  0.3125 0 0  0.375 0 0  0.4375 0 0  0.5 0 0  0.5625 0 0  0.625 0 0  0.6875 0 0  0.75 0 0  0.8125 0 0  0.875 0 0  0.9375 0 0  1 0 0  0 0.0625 0  0.0625 0.0625 0  0.125 0.0625 0  0.1875 0.0625 0  0.25 0.0625 0  0.3125 0.0625 0  0.375 0.0625 0  0.4375 0.0625 0  0.5 0.0625 0  0.5625 0.0625 0  0.625 0.0625 0  0.6875 0.0625 0  0.75 0.0625 0  0.8125 0.0625 0  0.875 0.0625 0  0.9375 0.0625 0  1 0.0625 0  0 0.125 0  0.0625 0.125 0  0.125 0.125 0  0.1875 0.125 0  0.25 0.125 0  0.3125 0.125 0  0.375 0.125 0  0.4375 0.125 0  0.5 0.125 0  0.5625 0.125 0  0.625 0.125 0  0.6875 0.125 0  0.75 0.125 0  0.8125 0.125 0  0.875 0.125 0  0.9375 0.125 0  1 0.125 0  0 0.1875 0  0.0625 0.1875 0  0.125 0.1875 0  0.1875 0.1875 0  0.25 0.1875 0  0.3125 0.1875 0  0.375 0.1875 0  0.4375 0.1875 0  0.5 0.1875 0  0.5625 0.1875 0  0.625 0.1875 0  0.6875 0.1875 0  0.75 0.1875 0  0.8125 0.1875 0  0.875 0.1875 0  0.9375 0.1875 0  1 0.1875 0  0 0.25 0  0.0625 0.25 0  0.125 0.25 0  0.1875 0.25 0  0.25 0.25 0  0.3125 0.25 0  0.375 0.25 0  0.4375 0.25 0  0.5 0.25 0  0.5625 0.25 0  0.625 0.25 0  0.6875 0.25 0  0.75 0.25 0  0.8125 0.25 0  0.875 0.25 0  0.9375 0.25 0  1 0.25 0  0 0.3125 0  0.0625 0.3125 0  0.125 0.3125 0  0.1875 0.3125 0  0.25 0.3125 0  0.3125 0.3125 0  0.375 0.3125 0  0.4375 0.3125 0  0.5 0.3125 0  0.5625 0.3125 0  0.625 0.3125 0  0.6875 0.3125 0  0.75 0.3125 0  0.8125 0.3125 0  0.875 0.3125 0  0.9375 0.3125 0  1 0.3125 0  0 0.375 0  0.0625 0.375 0  0.125 0.375 0  0.1875 0.375 0  0.25 0.375 0  0.3125 0.375 0  0.375 0.375 0  0.4375 0.375 0  0.5 0.375 0  0.5625 0.375 0  0.625 0.375 0  0.6875 0.375 0  0.75 0.375 0  0.8125 0.375 0  0.875 0.375 0  0.9375 0.375 0  1 0.375 0  0 0.4375 0  0.0625 0.4375 0  0.125 0.4375 0  0.1875 0.4375 0  0.25 0.4375 0  0.3125 0.4375 0  0.375 0.4375 0  0.4375 0.4375 0  0.5 0.4375 0  0.5625 0.4375 0  0.625 0.4375 0  0.6875 0.4375 0  0.75 0.4375 0  0.8125 0.4375 0  0.875 0.4375 0  0.9375 0.4375 0  1 0.4375 0  0 0.5 0  0.0625 0.5 0  0.125 0.5 0  0.1875 0.5 0  0.25 0.5 0  0.3125 0.5 0  0.375 0.5 0  0.4375 0.5 0  0.5 0.5 0  0.5625 0.5 0  0.625 0.5 0  0.6875 0.5 0  0.75 0.5 0  0.8125 0.5 0  0.875 0.5 0  0.9375 0.5 0  1 0.5 0  0 0.5625 0  0.0625 0.5625 0  0.125 0.5625 0  0.1875 0.5625 0  0.25 0.5625 0  0.3125 0.5625 0  0.375 0.5625 0  0.4375 0.5625 0  0.5 0.5625 0  0.5625 0.5625 0  0.625 0.5625 0  0.6875 0.5625 0  0.75 0.5625 0  0.8125 0.5625 0  0.875 0.5625 0  0.9375 0.5625 0  1 0.5625 0  0 0.625 0  0.0625 0.625 0  0.125 0.625 0  0.1875 0.625 0  0.25 0.625 0  0.3125 0.625 0  0.375 0.625 0  0.4375 0.625 0  0.5 0.625 0  0.5625 0.625 0  0.625 0.625 0  0.6875 0.625 0  0.75 0.625 0  0.8125 0.625 0  0.875 0.625 0  0.9375 0.625 0  1 0.625 0  0 0.6875 0  0.0625 0.6875 0  0.125 0.6875 0  0.1875 0.6875 0  0.25 0.6875 0  0.3125 0.6875 0  0.375 0.6875 0  0.4375 0.6875 0  0.5 0.6875 0  0.5625 0.6875 0  0.625 0.6875 0  0.6875 0.6875 0  0.75 0.6875 0  0.8125 0.6875 0  0.875 0.6875 0  0.9375 0.6875 0  1 0.6875 0  0 0.75 0  0.0625 0.75 0  0.125 0.75 0  0.1875 0.75 0  0.25 0.75 0  0.3125 0.75 0  0.375 0.75 0  0.4375 0.75 0  0.5 0.75 0  0.5625 0.75 0  0.625 0.75 0  0.6875 0.75 0  0.75 0.75 0  0.8125 0.75 0  0.875 0.75 0  0.9375 0.75 0  1 0.75 0  0 0.8125 0  0.0625 0.8125 0  0.125 0.8125 0  0.1875 0.8125 0  0.25 0.8125 0  0.3125 0.8125 0  0.375 0.8125 0  0.4375 0.8125 0  0.5 0.8125 0  0.5625 0.8125 0  0.625 0.8125 0  0.6875 0.8125 0  0.75 0.8125 0  0.8125 0.8125 0  0.875 0.8125 0  0.9375 0.8125 0  1 0.8125 0  0 0.875 0  0.0625 0.875 0  0.125 0.875 0  0.1875 0.875 0  0.25 0.875 0  0.3125 0.875 0  0.375 0.875 0  0.4375 0.875 0  0.5 0.875 0  0.5625 0.875 0  0.625 0.875 0  0.6875 0.875 0  0.75 0.875 0  0.8125 0.875 0  0.875 0.875 0  0.9375 0.875 0  1 0.875 0  0 0.9375 0  0.0625 0.9375 0  0.125 0.9375 0  0.1875 0.9375 0  0.25 0.9375 0  0.3125 0.9375 0  0.375 0.9375 0  0.4375 0.9375 0  0.5 0.9375 0  0.5625 0.9375 0  0.625 0.9375 0  0.6875 0.9375 0  0.75 0.9375 0  0.8125 0.9375 0  0.875 0.9375 0  0.9375 0.9375 0  1 0.9375 0  0 1 0  0.0625 1 0  0.125 1 0  0.1875 1 0  0.25 1 0  0.3125 1 0  0.375 1 0  0.4375 1 0  0.5 1 0  0.5625 1 0  0.625 1 0  0.6875 1 0  0.75 1 0  0.8125 1 0  0.875 1 0  0.9375 1 0  1 1 0  </DataArray>
</Points>
<Cells>
<DataArray  type="UInt32"  Name="connectivity"  format="ascii">0 1 18  0 17 18  1 2 19  1 18 19  2 3 20  2 19 20  3 4 21  3 20 21  4 5 22  4 21 22  5 6 23  5 22 23  6 7 24  6 23 24  7 8 25  7 24 25  8 9 26  8 25 26  9 10 27  9 26 27  10 11 28  10 27 28  11 12 29  11 28 29  12 13 30  12 29 30  13 14 31  13 30 31  14 15 32  14 31 32  15 16 33  15 32 33  17 18 35  17 34 35  18 19 36  18 35 36  19 20 37  19 36 37  20 21 38  20 37 38  21 22 39  21 38 39  22 23 40  22 39 40  23 24 41  23 40 41  24 25 42  24 41 42  25 26 43  25 42 43  26 27 44  26 43 44  27 28 45  27 44 45  28 29 46  28 45 46  29 30 47  29 46 47  30 31 48  30 47 48  31 32 49  31 48 49  32 33 50  32 49 50  34 35 52  34 51 52  35 36 53  35 52 53  36 37 54  36 53 54  37 38 55  37 54 55  38 39 56  38 55 56  39 40 57  39 56 57  40 41 58  40 57 58  41 42 59  41 58 59  42 43 60  42 59 60  43 44 61  43 60 61  44 45 62  44 61 62  45 46 63  45 62 63  46 47 64  46 63 64  47 48 65  47 64 65  48 49 66  48 65 66  49 50 67  49 66 67  51 52 69  51 68 69  52 53 70  52 69 70  53 54 71  53 70 71  54 55 72  54 71 72  55 56 73  55 72 73  56 57 74  56 73 74  57 58 75  57 74 75  58 59 76  58 75 76  59 60 77  59 76 77  60 61 78  60 77 78  61 62 79  61 78 79  62 63 80  62 79 80  63 64 81  63 80 81  64 65 82  64 81 82  65 66 83  65 82 83  66 67 84  66 83 84  68 69 86  68 85 86  69 70 87  69 86 87  70 71 88  70 87 88  71 72 89  71 88 89  72 73 90  72 89 90  73 74 91  73 90 91  74 75 92  74 91 92  75 76 93  75 92 93  76 77 94  76 93 94  77 78 95  77 94 95  78 79 96  78 95 96  79 80 97  79 96 97  80 81 98  80 97 98  81 82 99  81 98 99  82 83 100  82 99 100  83 84 101  83 100 101  85 86 103  85 102 103  86 87 104  86 103 104  87 88 105  87 104 105  88 89 106  88 105 106  89 90 107  89 106 107  90 91 108  90 107 108  91 92 109  91 108 109  92 93 110  92 109 110  93 94 111  93 110 111  94 95 112  94 111 112  95 96 113  95 112 113  96 97 114  96 113 114  97 98 115  97 114 115  98 99 116  98 115 116  99 100 117  99 116 117  100 101 118  100 117 118  102 103 120  102 119 120  103 104 121  103 120 121  104 105 122  104 121 122  105 106 123  105 122 123  106 107 124  106 123 124  107 108 125  107 124 125  108 109 126  108 125 126  109 110 127  109 126 127  110 111 128  110 127 128  111 112 129  111 128 129  112 113 130  112 129 130  113 114 131  113 130 131  114 115 132  114 131 132  115 116 133  115 132 133  116 117 134  116 133 134  117 118 135  117 134 135  119 120 137  119 136 137  120 121 138  120 137 138  121 122 139  121 138 139  122 123 140  122 139 140  123 124 141  123 140 141  124 125 142  124 141 142  125 126 143  125 142 143  126 127 144  126 143 144  127 128 145  127 144 145  128 129 146  128 145 146  129 130 147  129 146 147  130 131 148  130 147 148  131 132 149  131 148 149  132 133 150  132 149 150  133 134 151  133 150 151  134 135 152  134 151 152  136 137 154  136 153 154  137 138 155  137 154 155  138 139 156  138 155 156  139 140 157  139 156 157  140 141 158  140 157 158  141 142 159  141 158 159  142 143 160  142 159 160  143 144 161  143 160 161  144 145 162  144 161 162  145 146 163  145 162 163  146 147 164  146 163 164  147 148 165  147 164 165  148 149 166  148 165 166  149 150 167  149 166 167  150 151 168  150 167 168  151 152 169  151 168 169  153 154 171  153 170 171  154 155 172  154 171 172  155 156 173  155 172 173  156 157 174  156 173 174  157 158 175  157 174 175  158 159 176  158 175 176  159 160 177  159 176 177  160 161 178  160 177 178  161 162 179  161 178 179  162 163 180  162 179 180  163 164 181  163 180 181  164 165 182  164 181 182  165 166 183  165 182 183  166 167 184  166 183 184  167 168 185  167 184 185  168 169 186  168 185 186  170 171 188  170 187 188  171 172 189  171 188 189  172 173 190  172 189 190  173 174 191  173 190 191  174 175 192  174 191 192  175 176 193  175 192 193  176 177 194  176 193 194  177 178 195  177 194 195  178 179 196  178 195 196  179 180 197  179 196 197  180 181 198  180 197 198  181 182 199  181 198 199  182 183 200  182 199 200  183 184 201  183 200 201  184 185 202  184 201 202  185 186 203  185 202 203  187 188 205  187 204 205  188 189 206  188 205 206  189 190 207  189 206 207  190 191 208  190 207 208  191 192 209  191 208 209  192 193 210  192 209 210  193 194 211  193 210 211  194 195 212  194 211 212  195 196 213  195 212 213  196 197 214  196 213 214  197 198 215  197 214 215  198 199 216  198 215 216  199 200 217  199 216 217  200 201 218  200 217 218  201 202 219  201 218 219  202 203 220  202 219 220  204 205 222  204 221 222  205 206 223  205 222 223  206 207 224  206 223 224  207 208 225  207 224 225  208 209 226  208 225 226  209 210 227  209 226 227  210 211 228  210 227 228  211 212 229  211 228 229  212 213 230  212 229 230  213 214 231  213 230 231  214 215 232  214 231 232  215 216 233  215 232 233  216 217 234  216 233 234  217 218 235  217 234 235  218 219 236  218 235 236  219 220 237  219 236 237  221 222 239  221 238 239  222 223 240  222 239 240  223 224 241  223 240 241  224 225 242  224 241 242  225 226 243  225 242 243  226 227 244  226 243 244  227 228 245  227 244 245  228 229 246  228 245 246  229 230 247  229 246 247  230 231 248  230 247 248  231 232 249  231 248 249  232 233 250  232 249 250  233 234 251  233 250 251  234 235 252  234 251 252  235 236 253  235 252 253  236 237 254  236 253 254  238 239 256  238 255 256  239 240 257  239 256 257  240 241 258  240 257 258  241 242 259  241 258 259  242 243 260  242 259 260  243 244 261  243 260 261  244 245 262  244 261 262  245 246 263  245 262 263  246 247 264  246 263 264  247 248 265  247 264 265  248 249 266  248 265 266  249 250 267  249 266 267  250 251 268  250 267 268  251 252 269  251 268 269  252 253 270  252 269 270  253 254 271  253 270 271  255 256 273  255 272 273  256 257 274  256 273 274  257 258 275  257 274 275  258 259 276  258 275 276  259 260 277  259 276 277  260 261 278  260 277 278  261 262 279  261 278 279  262 263 280  262 279 280  263 264 281  263 280 281  264 265 282  264 281 282  265 266 283  265 282 283  266 267 284  266 283 284  267 268 285  267 284 285  268 269 286  268 285 286  269 270 287  269 286 287  270 271 288  270 287 288  </DataArray>
<DataArray  type="UInt32"  Name="offsets"  format="ascii">3 6 9 12 15 18 21 24 27 30 33 36 39 42 45 48 51 54 57 60 63 66 69 72 75 78 81 84 87 90 93 96 99 102 105 108 111 114 117 120 123 126 129 132 135 138 141 144 147 150 153 156 159 162 165 168 171 174 177 180 183 186 189 192 195 198 201 204 207 210 213 216 219 222 225 228 231 234 237 240 243 246 249 252 255 258 261 264 267 270 273 276 279 282 285 288 291 294 297 300 303 306 309 312 315 318 321 324 327 330 333 336 339 342 345 348 351 354 357 360 363 366 369 372 375 378 381 384 387 390 393 396 399 402 405 408 411 414 417 420 423 426 429 432 435 438 441 444 447 450 453 456 459 462 465 468 471 474 477 480 483 486 489 492 495 498 501 504 507 510 513 516 519 522 525 528 531 534 537 540 543 546 549 552 555 558 561 564 567 570 573 576 579 582 585 588 591 594 597 600 603 606 609 612 615 618 621 624 627 630 633 636 639 642 645 648 651 654 657 660 663 666 669 672 675 678 681 684 687 690 693 696 699 702 705 708 711 714 717 720 723 726 729 732 735 738 741 744 747 750 753 756 759 762 765 768 771 774 777 780 783 786 789 792 795 798 801 804 807 810 813 816 819 822 825 828 831 834 837 840 843 846 849 852 855 858 861 864 867 870 873 876 879 882 885 888 891 894 897 900 903 906 909 912 915 918 921 924 927 930 933 936 939 942 945 948 951 954 957 960 963 966 969 972 975 978 981 984 987 990 993 996 999 1002 1005 1008 1011 1014 1017 1020 1023 1026 1029 1032 1035 1038 1041 1044 1047 1050 1053 1056 1059 1062 1065 1068 1071 1074 1077 1080 1083 1086 1089 1092 1095 1098 1101 1104 1107 1110 1113 1116 1119 1122 1125 1128 1131 1134 1137 1140 1143 1146 1149 1152 1155 1158 1161 1164 1167 1170 1173 1176 1179 1182 1185 1188 1191 1194 1197 1200 1203 1206 1209 1212 1215 1218 1221 1224 1227 1230 1233 1236 1239 1242 1245 1248 1251 1254 1257 1260 1263 1266 1269 1272 1275 1278 1281 1284 1287 1290 1293 1296 1299 1302 1305 1308 1311 1314 1317 1320 1323 1326 1329 1332 1335 1338 1341 1344 1347 1350 1353 1356 1359 1362 1365 1368 1371 1374 1377 1380 1383 1386 1389 1392 1395 1398 1401 1404 1407 1410 1413 1416 1419 1422 1425 1428 1431 1434 1437 1440 1443 1446 1449 1452 1455 1458 1461 1464 1467 1470 1473 1476 1479 1482 1485 1488 1491 1494 1497 1500 1503 1506 1509 1512 1515 1518 1521 1524 1527 1530 1533 1536 </DataArray>
<DataArray  type="UInt8"  Name="types"  format="ascii">5 5 5 5 5 5 5 5 5 5 5 5 5 5 5 5 5 5 5 5 5 5 5 5 5 5 5 5 5 5 5 5 5 5 5 5 5 5 5 5 5 5 5 5 5 5 5 5 5 5 5 5 5 5 5 5 5 5 5 5 5 5 5 5 5 5 5 5 5 5 5 5 5 5 5 5 5 5 5 5 5 5 5 5 5 5 5 5 5 5 5 5 5 5 5 5 5 5 5 5 5 5 5 5 5 5 5 5 5 5 5 5 5 5 5 5 5 5 5 5 5 5 5 5 5 5 5 5 5 5 5 5 5 5 5 5 5 5 5 5 5 5 5 5 5 5 5 5 5 5 5 5 5 5 5 5 5 5 5 5 5 5 5 5 5 5 5 5 5 5 5 5 5 5 5 5 5 5 5 5 5 5 5 5 5 5 5 5 5 5 5 5 5 5 5 5 5 5 5 5 5 5 5 5 5 5 5 5 5 5 5 5 5 5 5 5 5 5 5 5 5 5 5 5 5 5 5 5 5 5 5 5 5 5 5 5 5 5 5 5 5 5 5 5 5 5 5 5 5 5 5 5 5 5 5 5 5 5 5 5 5 5 5 5 5 5 5 5 5 5 5 5 5 5 5 5 5 5 5 5 5 5 5 5 5 5 5 5 5 5 5 5 5 5 5 5 5 5 5 5 5 5 5 5 5 5 5 5 5 5 5 5 5 5 5 5 5 5 5 5 5 5 5 5 5 5 5 5 5 5 5 5 5 5 5 5 5 5 5 5 5 5 5 5 5 5 5 5 5 5 5 5 5 5 5 5 5 5 5 5 5 5 5 5 5 5 5 5 5 5 5 5 5 5 5 5 5 5 5 5 5 5 5 5 5 5 5 5 5 5 5 5 5 5 5 5 5 5 5 5 5 5 5 5 5 5 5 5 5 5 5 5 5 5 5 5 5 5 5 5 5 5 5 5 5 5 5 5 5 5 5 5 5 5 5 5 5 5 5 5 5 5 5 5 5 5 5 5 5 5 5 5 5 5 5 5 5 5 5 5 5 5 5 5 5 5 5 5 5 5 5 5 5 5 5 5 5 5 5 5 5 5 5 5 5 5 5 5 5 5 5 5 5 5 5 5 5 5 5 5 5 5 5 5 5 5 5 5 5 5 5 5 </DataArray>
</Cells>
<PointData  Vectors="f_364-1"> 
<DataArray  type="Float64"  Name="f_364-1"  NumberOfComponents="3" format="ascii">0.0000000000000000e+00 -9.2531431026115704e-05 0.0000000000000000e+00  3.3363518711386340e-04 -1.4119936140346423e-04 0.0000000000000000e+00  1.1061194445659958e-03 -3.9840009147125389e-04 0.0000000000000000e+00  3.3262360180110135e-03 -1.1582435013241764e-03 0.0000000000000000e+00  9.6037281582910562e-03 -3.2665778840554154e-03 0.0000000000000000e+00  2.6611099987883854e-02 -8.7996114359480369e-03 0.0000000000000000e+00  7.0177388791606621e-02 -2.2353193500130923e-02 0.0000000000000000e+00  1.7401967118150491e-01 -5.2613994972323164e-02 0.0000000000000000e+00  3.9905151822377777e-01 -1.1174378396237467e-01 0.0000000000000000e+00  8.2680969221936196e-01 -2.0503392479282301e-01 0.0000000000000000e+00  1.4993800048992343e+00 -3.0095357310748283e-01 0.0000000000000000e+00  2.2872930196993346e+00 -3.0412355151569503e-01 0.0000000000000000e+00  2.8179008193044086e+00 -1.2762909366001907e-01 0.0000000000000000e+00  2.7170152421306595e+00 1.4415845798613436e-01 0.0000000000000000e+00  1.9968386484413090e+00 3.2166760685846540e-01 0.0000000000000000e+00  9.7661484108958052e-01 3.7440557694273324e-01 0.0000000000000000e+00  0.0000000000000000e+00 0.0000000000000000e+00 0.0000000000000000e+00  0.0000000000000000e+00 -8.5558729149887749e-05 0.0000000000000000e+00  3.4876314726773987e-04 -1.1638985198494597e-04 0.0000000000000000e+00  1.1485791344983411e-03 -3.2870127188855815e-04 0.0000000000000000e+00  3.4418651977196749e-03 -9.5972671526354863e-04 0.0000000000000000e+00  9.9098169566904284e-03 -2.7159675949365268e-03 0.0000000000000000e+00  2.7379631106886321e-02 -7.3407436243402499e-03 0.0000000000000000e+00  7.1976799713865280e-02 -1.8713019678803289e-02 0.0000000000000000e+00  1.7787180589286922e-01 -4.4224795902389868e-02 0.0000000000000000e+00  4.0639248131401184e-01 -9.4451217195845483e-02 0.0000000000000000e+00  8.3881292968738697e-01 -1.7509439377415181e-01 0.0000000000000000e+00  1.5154488621511004e+00 -2.6324184673155493e-01 0.0000000000000000e+00  2.3036793240606550e+00 -2.8355589929911540e-01 0.0000000000000000e+00  2.8269276965381938e+00 -1.5969882294463744e-01 0.0000000000000000e+00  2.7067403233485425e+00 4.7835489565012157e-02 0.0000000000000000e+00  1.9594333589262138e+00 1.7610158866001058e-01 0.0000000000000000e+00  9.2168203953876571e-01 1.8333879964255928e-01 0.0000000000000000e+00  1.0699908120365115e-17 2.0004179460502342e-01 0.0000000000000000e+00  0.0000000000000000e+00 -9.1218672151745049e-05 0.0000000000000000e+00  3.4603925890259633e-04 -1.3227654497062892e-04 0.0000000000000000e+00  1.1385802310558885e-03 -3.7561521389220011e-04 0.0000000000000000e+00  3.4061906083732423e-03 -1.0943541038618328e-03 0.0000000000000000e+00  9.7902962608230025e-03 -3.0859259155762153e-03 0.0000000000000000e+00  2.7004234058163178e-02 -8.3050443738755600e-03 0.0000000000000000e+00  7.0878758246410448e-02 -2.1068534704457617e-02 0.0000000000000000e+00  1.7491312853169330e-01 -4.9544722823456705e-02 0.0000000000000000e+00  3.9916779864949009e-01 -1.0542417984770264e-01 0.0000000000000000e+00  8.2320321792061257e-01 -1.9568379863197483e-01 0.0000000000000000e+00  1.4866351555570629e+00 -2.9896206388491020e-01 0.0000000000000000e+00  2.2602372175259027e+00 -3.4249338363492443e-01 0.0000000000000000e+00  2.7754692783552657e+00 -2.5089308909761154e-01 0.0000000000000000e+00  2.6584614904106934e+00 -7.7337512440794676e-02 0.0000000000000000e+00  1.9202001653641489e+00 2.4165819317371273e-02 0.0000000000000000e+00  8.9065498227854722e-01 1.2162477640548008e-02 0.0000000000000000e+00  -4.4349849203527195e-17 7.6528605841025693e-02 0.0000000000000000e+00  0.0000000000000000e+00 -9.5066602062505361e-05 0.0000000000000000e+00  3.3371270920944872e-04 -1.4733745927399865e-04 0.0000000000000000e+00  1.0975279081863994e-03 -4.2096498061935971e-04 0.0000000000000000e+00  3.2788782098033126e-03 -1.2285840520729055e-03 0.0000000000000000e+00  9.4129695416010628e-03 -3.4700841889996423e-03 0.0000000000000000e+00  2.5939178307847251e-02 -9.3615777854521263e-03 0.0000000000000000e+00  6.8044016083875405e-02 -2.3840534169040348e-02 0.0000000000000000e+00  1.6789349141349880e-01 -5.6424927787019519e-02 0.0000000000000000e+00  3.8327564565981292e-01 -1.2141770834358173e-01 0.0000000000000000e+00  7.9106470471750523e-01 -2.3005191087764421e-01 0.0000000000000000e+00  1.4303123619547033e+00 -3.6610944212842256e-01 0.0000000000000000e+00  2.1774044212104573e+00 -4.5962916530727327e-01 0.0000000000000000e+00  2.6752540124321826e+00 -4.3043831189159043e-01 0.0000000000000000e+00  2.5579731280637090e+00 -3.1755669357697514e-01 0.0000000000000000e+00  1.8339053569653307e+00 -2.6024149238314775e-01 0.0000000000000000e+00  8.2493070030062809e-01 -2.9735295014295060e-01 0.0000000000000000e+00  -1.3671106146322692e-16 -1.2770294294448081e-01 0.0000000000000000e+00  0.0000000000000000e+00 -9.6716230697275736e-05 0.0000000000000000e+00  3.1080417817288620e-04 -1.6045732446671340e-04 0.0000000000000000e+00  1.0213036347423783e-03 -4.6249486121859105e-04 0.0000000000000000e+00  3.0452721284219158e-03 -1.3573309672376024e-03 0.0000000000000000e+00  8.7270654765105437e-03 -3.8592258517585569e-03 0.0000000000000000e+00  2.4014896082539459e-02 -1.0503602172297431e-02 0.0000000000000000e+00  6.2934086411475229e-02 -2.7072010657599371e-02 0.0000000000000000e+00  1.5521620577614678e-01 -6.5152698328374864e-02 0.0000000000000000e+00  3.5441059379722689e-01 -1.4358089799951440e-01 0.0000000000000000e+00  7.3222590290671141e-01 -2.8183216954426038e-01 0.0000000000000000e+00  1.3264584402771578e+00 -4.7440695126278976e-01 0.0000000000000000e+00  2.0243080844123322e+00 -6.5689575712133141e-01 0.0000000000000000e+00  2.4912480382782971e+00 -7.3802844309843385e-01 0.0000000000000000e+00  2.3775962637920998e+00 -7.2915529232181475e-01 0.0000000000000000e+00  1.6873634303854144e+00 -7.4350889015920707e-01 0.0000000000000000e+00  7.2802248104792078e-01 -8.1465385601985973e-01 0.0000000000000000e+00  -3.0082371280827821e-16 -4.9251853331922824e-01 0.0000000000000000e+00  0.0000000000000000e+00 -9.5464548537464494e-05 0.0000000000000000e+00  2.7730920270356541e-04 -1.6924065139460999e-04 0.0000000000000000e+00  9.0927376675548153e-04 -4.9251755219356522e-04 0.0000000000000000e+00  2.7012656638894274e-03 -1.4557613355077543e-03 0.0000000000000000e+00  7.7127169952971144e-03 -4.1753228006527971e-03 0.0000000000000000e+00  2.1148728417619552e-02 -1.1495500482640756e-02 0.0000000000000000e+00  5.5243034900453604e-02 -3.0087503094983169e-02 0.0000000000000000e+00  1.3587015189111298e-01 -7.3921597300921377e-02 0.0000000000000000e+00  3.0962669747872651e-01 -1.6753376719137403e-01 0.0000000000000000e+00  6.3931589784487319e-01 -3.4184140395413420e-01 0.0000000000000000e+00  1.1599217240759876e+00 -6.0833073581778940e-01 0.0000000000000000e+00  1.7771975367486006e+00 -9.1473151710247147e-01 0.0000000000000000e+00  2.1981837501190933e+00 -1.1559702209749783e+00 0.0000000000000000e+00  2.1035746576088457e+00 -1.2992811114662537e+00 0.0000000000000000e+00  1.4865005697609848e+00 -1.4158439307488735e+00 0.0000000000000000e+00  6.2683224822345374e-01 -1.5274930965733251e+00 0.0000000000000000e+00  -5.5702799888690707e-16 -1.0668500324260908e+00 0.0000000000000000e+00  0.0000000000000000e+00 -9.0555759401722254e-05 0.0000000000000000e+00  2.3505477752295875e-04 -1.7035052729090882e-04 0.0000000000000000e+00  7.6732266896986472e-04 -4.9937083878371009e-04 0.0000000000000000e+00  2.2645106795280748e-03 -1.4834348596514343e-03 0.0000000000000000e+00  6.4204990840308913e-03 -4.2814472251830778e-03 0.0000000000000000e+00  1.7478500837297763e-02 -1.1888059029770328e-02 0.0000000000000000e+00  4.5324307185957716e-02 -3.1473641928834006e-02 0.0000000000000000e+00  1.1069337849063485e-01 -7.8532537056234308e-02 0.0000000000000000e+00  2.5070225726631601e-01 -1.8176668550153596e-01 0.0000000000000000e+00  5.1550231164456284e-01 -3.8189034856508608e-01 0.0000000000000000e+00  9.3493381187750058e-01 -7.0857081739518035e-01 0.0000000000000000e+00  1.4400019538300106e+00 -1.1298057880474603e+00 0.0000000000000000e+00  1.8010850703988057e+00 -1.5360371157010702e+00 0.0000000000000000e+00  1.7496060921647056e+00 -1.8453548220196150e+00 0.0000000000000000e+00  1.2598604841407268e+00 -2.0744058349816421e+00 0.0000000000000000e+00  5.6325088295587245e-01 -2.2245984711370341e+00 0.0000000000000000e+00  -8.6907870489039611e-16 -1.7785593748283146e+00 0.0000000000000000e+00  0.0000000000000000e+00 -8.1652988475629498e-05 0.0000000000000000e+00  1.8789283415414292e-04 -1.6107510807748270e-04 0.0000000000000000e+00  6.0880919870262540e-04 -4.7313746609767325e-04 0.0000000000000000e+00  1.7780862226528312e-03 -1.4048448229444894e-03 0.0000000000000000e+00  4.9847937913782524e-03 -4.0534891126666178e-03 0.0000000000000000e+00  1.3408615535151954e-02 -1.1260382785353755e-02 0.0000000000000000e+00  3.4339785313118494e-02 -2.9859530178965983e-02 0.0000000000000000e+00  8.2820468423630555e-02 -7.4756416659508163e-02 0.0000000000000000e+00  1.8537623025412600e-01 -1.7413856878485837e-01 0.0000000000000000e+00  3.7759580194858039e-01 -3.7023318753041673e-01 0.0000000000000000e+00  6.8179762833312885e-01 -7.0165939317090298e-01 0.0000000000000000e+00  1.0545872996558061e+00 -1.1574808797334413e+00 0.0000000000000000e+00  1.3409491638540654e+00 -1.6442817626909110e+00 0.0000000000000000e+00  1.3438416740019627e+00 -2.0537149777352006e+00 0.0000000000000000e+00  1.0210349823467670e+00 -2.3533479719785122e+00 0.0000000000000000e+00  5.3421447909094766e-01 -2.5215738986706366e+00 0.0000000000000000e+00  -1.1060346714950935e-15 -2.3454792027090985e+00 0.0000000000000000e+00  0.0000000000000000e+00 -6.9288487332437322e-05 0.0000000000000000e+00  1.4089048071485092e-04 -1.4125806161981012e-04 0.0000000000000000e+00  4.5156902103754104e-04 -4.1288420217026260e-04 0.0000000000000000e+00  1.2997974593280839e-03 -1.2164246874472478e-03 0.0000000000000000e+00  3.5865744798085643e-03 -3.4790281176374041e-03 0.0000000000000000e+00  9.4849469851574515e-03 -9.5723531375235416e-03 0.0000000000000000e+00  2.3859808800559920e-02 -2.5125336279928370e-02 0.0000000000000000e+00  5.6496367341786216e-02 -6.2253947343650376e-02 0.0000000000000000e+00  1.2420694177726779e-01 -1.4365356825771938e-01 0.0000000000000000e+00  2.4904282934216693e-01 -3.0351783389653941e-01 0.0000000000000000e+00  4.4493832277352668e-01 -5.7552336273821103e-01 0.0000000000000000e+00  6.8767493285815540e-01 -9.5995006062241817e-01 0.0000000000000000e+00  8.8777786519561541e-01 -1.3927926051193844e+00 0.0000000000000000e+00  9.2436142186402992e-01 -1.7778113506139295e+00 0.0000000000000000e+00  7.5602279271614481e-01 -2.0607360254860052e+00 0.0000000000000000e+00  4.7221439960567990e-01 -2.2053551788697670e+00 0.0000000000000000e+00  -1.1127160295438256e-15 -2.4171908406547788e+00 0.0000000000000000e+00  0.0000000000000000e+00 -5.4931152710308516e-05 0.0000000000000000e+00  9.8822478469190968e-05 -1.1402561935778696e-04 0.0000000000000000e+00  3.1222905647913405e-04 -3.2928966641242180e-04 0.0000000000000000e+00  8.8222769209666640e-04 -9.5561010234635250e-04 0.0000000000000000e+00  2.3857688892623781e-03 -2.6871049478237449e-03 0.0000000000000000e+00  6.1744165672207637e-03 -7.2563821994201857e-03 0.0000000000000000e+00  1.5181321907463931e-02 -1.8662943785488929e-02 0.0000000000000000e+00  3.5108551178496969e-02 -4.5257512401902178e-02 0.0000000000000000e+00  7.5396332957608544e-02 -1.0219833920349193e-01 0.0000000000000000e+00  1.4793549206981241e-01 -2.1169938208659375e-01 0.0000000000000000e+00  2.5984271869143444e-01 -3.9549102184665991e-01 0.0000000000000000e+00  3.9849155757441962e-01 -6.5541733444396089e-01 0.0000000000000000e+00  5.1868481163933211e-01 -9.5403493216699786e-01 0.0000000000000000e+00  5.5805844272654714e-01 -1.2273321497313134e+00 0.0000000000000000e+00  4.8883600589245801e-01 -1.4279094858524481e+00 0.0000000000000000e+00  3.5024551552698013e-01 -1.5186290142333021e+00 0.0000000000000000e+00  -8.8105344178146472e-16 -1.9510351654751292e+00 0.0000000000000000e+00  0.0000000000000000e+00 -4.0529392316409113e-05 0.0000000000000000e+00  6.4814707358284448e-05 -8.4518940747287775e-05 0.0000000000000000e+00  2.0122825517177365e-04 -2.3966377644640043e-04 0.0000000000000000e+00  5.5622279594626060e-04 -6.8094713922875515e-04 0.0000000000000000e+00  1.4688161848150506e-03 -1.8704447385603105e-03 0.0000000000000000e+00  3.7060272672413343e-03 -4.9236746951872700e-03 0.0000000000000000e+00  8.8718168639068864e-03 -1.2320130986433498e-02 0.0000000000000000e+00  1.9958411219690775e-02 -2.9024672779715599e-02 0.0000000000000000e+00  4.1693893799118115e-02 -6.3646960094251415e-02 0.0000000000000000e+00  7.9701901404478248e-02 -1.2819596052912954e-01 0.0000000000000000e+00  1.3694903147877688e-01 -2.3376185887032094e-01 0.0000000000000000e+00  2.0714341004458564e-01 -3.8070117030654765e-01 0.0000000000000000e+00  2.6972875319147827e-01 -5.4925557504238443e-01 0.0000000000000000e+00  2.9672863277170147e-01 -7.0462599159082540e-01 0.0000000000000000e+00  2.7374801044623187e-01 -8.1712454289010306e-01 0.0000000000000000e+00  2.1500169961480359e-01 -8.5907304828001685e-01 0.0000000000000000e+00  -5.6363049594248571e-16 -1.2685866358532842e+00 0.0000000000000000e+00  0.0000000000000000e+00 -2.7805314569020391e-05 0.0000000000000000e+00  3.9831643777720218e-05 -5.7598520226956680e-05 0.0000000000000000e+00  1.2117828418570043e-04 -1.5961433814151683e-04 0.0000000000000000e+00  3.2674059814052903e-04 -4.4205469972534049e-04 0.0000000000000000e+00  8.4016234152647570e-04 -1.1808727485235894e-03 0.0000000000000000e+00  2.0608819272217240e-03 -3.0166998901200782e-03 0.0000000000000000e+00  4.7901164048850904e-03 -7.3120594664224251e-03 0.0000000000000000e+00  1.0454412766818839e-02 -1.6665147310667663e-02 0.0000000000000000e+00  2.1188784912114535e-02 -3.5342302770587114e-02 0.0000000000000000e+00  3.9354976967757908e-02 -6.8926507435688317e-02 0.0000000000000000e+00  6.5950705667772613e-02 -1.2210148705282620e-01 0.0000000000000000e+00  9.7999205731236910e-02 -1.9429759304347347e-01 0.0000000000000000e+00  1.2691041450647450e-01 -2.7594275930741385e-01 0.0000000000000000e+00  1.4139490712355218e-01 -3.5064694830562254e-01 0.0000000000000000e+00  1.3514696918829855e-01 -4.0342413985440079e-01 0.0000000000000000e+00  1.1261084617362133e-01 -4.1813276102011626e-01 0.0000000000000000e+00  -3.0345857891662593e-16 -6.9247939022429583e-01 0.0000000000000000e+00  0.0000000000000000e+00 -1.7747253650758564e-05 0.0000000000000000e+00  2.3078388598964119e-05 -3.6158231859873832e-05 0.0000000000000000e+00  6.8607263913621509e-05 -9.7618867611172752e-05 0.0000000000000000e+00  1.8000578767454420e-04 -2.6283163848672805e-04 0.0000000000000000e+00  4.4965715613594516e-04 -6.8109389623325625e-04 0.0000000000000000e+00  1.0699995198455436e-03 -1.6846697271241840e-03 0.0000000000000000e+00  2.4100220361704954e-03 -3.9473992036533033e-03 0.0000000000000000e+00  5.0941624050691720e-03 -8.6882144038684991e-03 0.0000000000000000e+00  1.0002152658271590e-02 -1.7792304584922886e-02 0.0000000000000000e+00  1.8025879748016671e-02 -3.3550571295287442e-02 0.0000000000000000e+00  2.9418050586580102e-02 -5.7644808347954726e-02 0.0000000000000000e+00  4.2856111843829814e-02 -8.9425354493685605e-02 0.0000000000000000e+00  5.4994964314680449e-02 -1.2462674647912431e-01 0.0000000000000000e+00  6.1628623550457624e-02 -1.5632539959614070e-01 0.0000000000000000e+00  6.0284181783158287e-02 -1.7801590082426930e-01 0.0000000000000000e+00  5.2205829302938621e-02 -1.8185149729089195e-01 0.0000000000000000e+00  -1.4311478114805077e-16 -3.3036262591129839e-01 0.0000000000000000e+00  0.0000000000000000e+00 -1.0505213185584037e-05 0.0000000000000000e+00  1.2830169227190992e-05 -2.0816714753658608e-05 0.0000000000000000e+00  3.7139657984914483e-05 -5.4680746664037732e-05 0.000000000